 Gaussian 09, Revision B.01,
 Gaussian 09:  AM64L-G09RevB.01 12-Aug-2010

 ---------------------------------------------------------------
 #b3lyp/sto-3g opt=(calcall,noraman) temperature=298 IOP(2/17=4)
 ---------------------------------------------------------------

 ---------
 ts search
 ---------
 Symbolic Z-matrix:
 Charge =  0 Multiplicity = 1

 SCF Done:  E(RB3LYP) =  -111.772552952     A.U. after   12 cycles
 SCF Done:  E(RB3LYP) =  -111.772697065     A.U. after    6 cycles
 SCF Done:  E(RB3LYP) =  -111.772697178     A.U. after    6 cycles
 Optimization completed.
    -- Stationary point found.

                         Standard orientation:
 ---------------------------------------------------------------------
 Center     Atomic      Atomic             Coordinates (Angstroms)
 Number     Number       Type             X           Y           Z
 ---------------------------------------------------------------------
      1          6           0        0.000000    0.000000   -0.678727
      2          8           0        0.000000    0.000000    0.509045
 ---------------------------------------------------------------------

 The electronic state is 1-SG.
 Alpha  occ. eigenvalues --  -19.03752 -10.03104  -1.08714  -0.47360  -0.36605
 Alpha  occ. eigenvalues --   -0.36605  -0.26275
 Alpha virt. eigenvalues --    0.07575   0.07575   0.62695

 Mulliken atomic charges:
              1
     1  C    0.119417
     2  O   -0.119417
 Sum of Mulliken atomic charges =   0.00000

 Dipole moment (field-independent basis, Debye):
    X=              0.0000    Y=              0.0000    Z=              0.4041  Tot=              0.4041
 Quadrupole moment (field-independent basis, Debye-Ang):
   XX=             -8.7995   YY=             -8.7995   ZZ=            -11.5358
   XY=              0.0000   XZ=              0.0000   YZ=              0.0000

  Exact polarizability:   3.603   0.000   3.603   0.000   0.000   6.868
 Approx polarizability:   4.797   0.000   4.797   0.000   0.000  23.517

                     1
                    SG
 Frequencies --  2116.7265
 Red. masses --    13.4388
 Frc consts  --    35.4763
 IR Inten    --    16.4832

 - Thermochemistry -
 -------------------
 Temperature   298.000 Kelvin.  Pressure   1.00000 Atm.
 Atom     1 has atomic number  6 and mass  12.00000

 Molecular mass:    27.99491 amu.
 Principal axes and moments of inertia in atomic units:
                           1         2         3
     Eigenvalues --     0.00000  34.54208  34.54208
           X            0.00000   0.73687  -0.67603
           Y            0.00000   0.67603   0.73687
           Z            1.00000   0.00000   0.00000
 This molecule is a prolate symmetric top.
 Rotational symmetry number  1.
 Rotational temperature (Kelvin)      2.50749
 Rotational constant (GHZ):          52.247616
 Zero-point vibrational energy      12660.8 (Joules/Mol)
                                    3.02601 (Kcal/Mol)
 Vibrational temperatures:   3045.49
          (Kelvin)

 Zero-point correction=                           0.004822 (Hartree/Particle)
 Thermal correction to Energy=                    0.007182
 Thermal correction to Enthalpy=                  0.008126
 Thermal correction to Gibbs Free Energy=        -0.014386
 Sum of electronic and zero-point Energies=           -111.767875
 Sum of electronic and thermal Energies=              -111.765515
 Sum of electronic and thermal Enthalpies=            -111.764572
 Sum of electronic and thermal Free Energies=         -111.787083

                     E (Thermal)             CV                S
                      KCal/Mol        Cal/Mol-Kelvin    Cal/Mol-Kelvin
 Total                    4.507              4.976             47.403
 Electronic               0.000              0.000              0.000
 Translational            0.888              2.981             35.921
 Rotational               0.592              1.987             11.482
 Vibrational              3.026              0.008              0.001

 Normal termination of Gaussian 09 at Sat Sep  4 01:38:14 2021.
