 Gaussian 09, Revision B.01,
 Gaussian 09:  AM64L-G09RevB.01 12-Aug-2010

 ----------------------------------------------------------------------
 #b3lyp/sto-3g opt=(cartesian,maxcycle=100,calcall,noraman) temperature
 =298 IOP(2/17=4)
 ----------------------------------------------------------------------

 ---------
 ts search
 ---------
 Symbolic Z-matrix:
 Charge =  0 Multiplicity = 1

 SCF Done:  E(RB3LYP) =  -185.979974144     A.U. after    9 cycles
 SCF Done:  E(RB3LYP) =  -185.983777343     A.U. after    9 cycles
 SCF Done:  E(RB3LYP) =  -185.983945903     A.U. after    7 cycles
 Optimization completed.
    -- Stationary point found.

                         Standard orientation:
 ---------------------------------------------------------------------
 Center     Atomic      Atomic             Coordinates (Angstroms)
 Number     Number       Type             X           Y           Z
 ---------------------------------------------------------------------
      1          6           0        0.000000    0.000000    0.000763
      2          8           0        0.000000    1.227261   -0.000286
      3          8           0        0.000000   -1.227261   -0.000286
 ---------------------------------------------------------------------

 The electronic state is 1-A1.
 Alpha  occ. eigenvalues --  -18.98352 -18.98320 -10.16048  -1.06401  -1.01759
 Alpha  occ. eigenvalues --   -0.46229  -0.40496  -0.40496  -0.38182  -0.23145
 Alpha  occ. eigenvalues --   -0.23145
 Alpha virt. eigenvalues --    0.10607   0.10607   0.23927   0.85493

 Mulliken atomic charges:
              1
     1  C    0.280746
     2  O   -0.140373
     3  O   -0.140373
 Sum of Mulliken atomic charges =   0.00000

 Dipole moment (field-independent basis, Debye):
    X=              0.0000    Y=              0.0000    Z=              0.0015  Tot=              0.0015
 Quadrupole moment (field-independent basis, Debye-Ang):
   XX=            -13.2527   YY=            -16.8857   ZZ=            -13.2527
   XY=              0.0000   XZ=              0.0000   YZ=              0.0000

  Exact polarizability:   2.665   0.000  15.828   0.000   0.000   2.665
 Approx polarizability:   3.014   0.000  68.338   0.000   0.000   3.014

                     1                      2                      3
                    A1                     A1                     B2
 Frequencies --   486.6324              1270.1062              2382.6520
 Red. masses --    12.8774                15.9949                12.8774
 Frc consts  --     1.7967                15.2024                43.0723
 IR Inten    --     9.2988                 0.0000                88.9756

 - Thermochemistry -
 -------------------
 Temperature   298.000 Kelvin.  Pressure   1.00000 Atm.
 Atom     1 has atomic number  6 and mass  12.00000

 Molecular mass:    43.98983 amu.
 Principal axes and moments of inertia in atomic units:
                           1         2         3
     Eigenvalues --     0.00003 172.06153 172.06156
           X            0.00000   0.00000   1.00000
           Y            1.00000   0.00000   0.00000
           Z            0.00000   1.00000   0.00000
 This molecule is an asymmetric top.
 Rotational symmetry number  2.
 Rotational temperatures (Kelvin) ************     0.50339     0.50339
 Rotational constants (GHZ):      ************    10.48893    10.48893
 Zero-point vibrational energy      24759.1 (Joules/Mol)
                                    5.91756 (Kcal/Mol)
 Warning -- explicit consideration of   1 degrees of freedom as
           vibrations may cause significant error
 Vibrational temperatures:    700.15  1827.40  3428.10
          (Kelvin)

 Zero-point correction=                           0.009430 (Hartree/Particle)
 Thermal correction to Energy=                    0.012508
 Thermal correction to Enthalpy=                  0.013452
 Thermal correction to Gibbs Free Energy=        -0.007647
 Sum of electronic and zero-point Energies=           -185.974516
 Sum of electronic and thermal Energies=              -185.971438
 Sum of electronic and thermal Enthalpies=            -185.970494
 Sum of electronic and thermal Free Energies=         -185.991593

                     E (Thermal)             CV                S
                      KCal/Mol        Cal/Mol-Kelvin    Cal/Mol-Kelvin
 Total                    7.849              7.406             44.429
 Electronic               0.000              0.000              0.000
 Translational            0.888              2.981             37.268
 Rotational               0.888              2.981              6.438
 Vibrational              6.072              1.445              0.723
 Vibration     1          0.842              1.279              0.692

 Normal termination of Gaussian 09 at Sat Sep  4 01:38:56 2021.
