 Gaussian 09, Revision B.01,
 Gaussian 09:  AM64L-G09RevB.01 12-Aug-2010

 ---------------------------------------------------------------
 #b3lyp/sto-3g opt=(calcall,noraman) temperature=298 IOP(2/17=4)
 ---------------------------------------------------------------

 ---------
 ts search
 ---------
 Symbolic Z-matrix:
 Charge =  0 Multiplicity = 1

 SCF Done:  E(RB3LYP) =  -1.16553548330     A.U. after    3 cycles

 The electronic state is 1-SGG.
 Alpha  occ. eigenvalues --   -0.41848
 Alpha virt. eigenvalues --    0.43865

 Mulliken atomic charges:
              1
     1  H    0.000000
     2  H    0.000000
 Sum of Mulliken atomic charges =   0.00000

 Dipole moment (field-independent basis, Debye):
    X=              0.0000    Y=              0.0000    Z=              0.0000  Tot=              0.0000
 Quadrupole moment (field-independent basis, Debye-Ang):
   XX=             -1.8457   YY=             -1.8457   ZZ=             -1.4357
   XY=              0.0000   XZ=              0.0000   YZ=              0.0000

  Exact polarizability:   0.000   0.000   0.000   0.000   0.000   2.917
 Approx polarizability:   0.000   0.000   0.000   0.000   0.000   3.987

 Optimization completed.
    -- Stationary point found.

                         Standard orientation:
 ---------------------------------------------------------------------
 Center     Atomic      Atomic             Coordinates (Angstroms)
 Number     Number       Type             X           Y           Z
 ---------------------------------------------------------------------
      1          1           0        0.000000    0.000000    0.364247
      2          1           0        0.000000    0.000000   -0.364247
 ---------------------------------------------------------------------

                     1
                    SGG
 Frequencies --  5105.9279
 Red. masses --     1.0078
 Frc consts  --    15.4805
 IR Inten    --     0.0000

 - Thermochemistry -
 -------------------
 Temperature   298.000 Kelvin.  Pressure   1.00000 Atm.
 Atom     1 has atomic number  1 and mass   1.00783

 Molecular mass:     2.01565 amu.
 Principal axes and moments of inertia in atomic units:
                           1         2         3
     Eigenvalues --     0.00000   0.95500   0.95500
           X            0.00000  -0.68146   0.73185
           Y            0.00000   0.73185   0.68146
           Z            1.00000   0.00000   0.00000
 This molecule is a prolate symmetric top.
 Rotational symmetry number  2.
 Rotational temperature (Kelvin)     90.69490
 Rotational constant (GHZ):        1889.777340
 Zero-point vibrational energy      30540.2 (Joules/Mol)
                                    7.29929 (Kcal/Mol)
 Vibrational temperatures:   7346.28
          (Kelvin)

 Zero-point correction=                           0.011632 (Hartree/Particle)
 Thermal correction to Energy=                    0.013991
 Thermal correction to Enthalpy=                  0.014935
 Thermal correction to Gibbs Free Energy=         0.000189
 Sum of electronic and zero-point Energies=             -1.153903
 Sum of electronic and thermal Energies=                -1.151544
 Sum of electronic and thermal Enthalpies=              -1.150600
 Sum of electronic and thermal Free Energies=           -1.165347

                     E (Thermal)             CV                S
                      KCal/Mol        Cal/Mol-Kelvin    Cal/Mol-Kelvin
 Total                    8.780              4.968             31.052
 Electronic               0.000              0.000              0.000
 Translational            0.888              2.981             28.078
 Rotational               0.592              1.987              2.974
 Vibrational              7.299              0.000              0.000

 Normal termination of Gaussian 09 at Sat Sep  4 01:38:11 2021.
