 Gaussian 09, Revision B.01,
 Gaussian 09:  AM64L-G09RevB.01 12-Aug-2010

 ---------------------------------------------------------------
 #b3lyp/sto-3g opt=(calcall,noraman) temperature=298 IOP(2/17=4)
 ---------------------------------------------------------------

 ---------
 ts search
 ---------
 Symbolic Z-matrix:
 Charge =  0 Multiplicity = 1

 SCF Done:  E(RB3LYP) =  -75.3226734278     A.U. after    9 cycles
 SCF Done:  E(RB3LYP) =  -75.3227738581     A.U. after    9 cycles
 Optimization completed.
    -- Stationary point found.

                         Standard orientation:
 ---------------------------------------------------------------------
 Center     Atomic      Atomic             Coordinates (Angstroms)
 Number     Number       Type             X           Y           Z
 ---------------------------------------------------------------------
      1          8           0        0.000000    0.000000    0.135891
      2          1           0        0.000000    0.770276   -0.543565
      3          1           0        0.000000   -0.770276   -0.543565
 ---------------------------------------------------------------------

 The electronic state is 1-A1.
 Alpha  occ. eigenvalues --  -18.85230  -0.91221  -0.40445  -0.25489  -0.14609
 Alpha virt. eigenvalues --    0.30425   0.38672

 Mulliken atomic charges:
              1
     1  O   -0.298210
     2  H    0.149105
     3  H    0.149105
 Sum of Mulliken atomic charges =   0.00000

 Dipole moment (field-independent basis, Debye):
    X=              0.0000    Y=              0.0000    Z=             -1.5934  Tot=              1.5934
 Quadrupole moment (field-independent basis, Debye-Ang):
   XX=             -6.1630   YY=             -4.5856   ZZ=             -5.2856
   XY=              0.0000   XZ=              0.0000   YZ=              0.0000

  Exact polarizability:   0.033   0.000   5.644   0.000   0.000   3.052
 Approx polarizability:   0.030   0.000   7.094   0.000   0.000   5.374

                     1                      2                      3
                    A1                     A1                     B2
 Frequencies --  2017.0837              3612.4752              3836.8999
 Red. masses --     1.0771                 1.0504                 1.0745
 Frc consts  --     2.5819                 8.0766                 9.3196
 IR Inten    --     2.7072                69.5728                53.6584

 - Thermochemistry -
 -------------------
 Temperature   298.000 Kelvin.  Pressure   1.00000 Atm.
 Atom     1 has atomic number  8 and mass  15.99491

 Molecular mass:    18.01056 amu.
 Principal axes and moments of inertia in atomic units:
                           1         2         3
     Eigenvalues --     2.95115   4.27077   7.22191
           X            0.00000   0.00000   1.00000
           Y            1.00000   0.00000   0.00000
           Z            0.00000   1.00000   0.00000
 This molecule is an asymmetric top.
 Rotational symmetry number  2.
 Rotational temperatures (Kelvin)     29.34919    20.28063    11.99319
 Rotational constants (GHZ):         611.53865   422.58028   249.89792
 Zero-point vibrational energy      56622.0 (Joules/Mol)
                                   13.53298 (Kcal/Mol)
 Vibrational temperatures:   2902.13  5197.54  5520.44
          (Kelvin)

 Zero-point correction=                           0.021566 (Hartree/Particle)
 Thermal correction to Energy=                    0.024398
 Thermal correction to Enthalpy=                  0.025342
 Thermal correction to Gibbs Free Energy=         0.003728
 Sum of electronic and zero-point Energies=            -75.301208
 Sum of electronic and thermal Energies=               -75.298376
 Sum of electronic and thermal Enthalpies=             -75.297432
 Sum of electronic and thermal Free Energies=          -75.319046

                     E (Thermal)             CV                S
                      KCal/Mol        Cal/Mol-Kelvin    Cal/Mol-Kelvin
 Total                   15.310              5.973             45.513
 Electronic               0.000              0.000              0.000
 Translational            0.888              2.981             34.606
 Rotational               0.888              2.981             10.906
 Vibrational             13.533              0.011              0.001

 Normal termination of Gaussian 09 at Sat Sep  4 01:38:13 2021.
