 Gaussian 09, Revision B.01,
 Gaussian 09:  AM64L-G09RevB.01 12-Aug-2010

 ----------------------------------------------------------------------
 #b3lyp/sto-3g pop=(mk,nbo) opt=(calcall,noraman) temperature=298 IOP(2
 /17=4)
 ----------------------------------------------------------------------

 ---------
 ts search
 ---------
 Symbolic Z-matrix:
 Charge =  0 Multiplicity = 1

 SCF Done:  E(RB3LYP) =  -187.153807984     A.U. after   12 cycles
 SCF Done:  E(RB3LYP) =  -187.153809406     A.U. after   12 cycles
 Optimization completed.
    -- Stationary point found.

                         Standard orientation:
 ---------------------------------------------------------------------
 Center     Atomic      Atomic             Coordinates (Angstroms)
 Number     Number       Type             X           Y           Z
 ---------------------------------------------------------------------
      1          6           0        0.000000    0.450200    0.000000
      2          8           0        1.204975    0.120145    0.000000
      3          8           0       -1.077845   -0.471514    0.000000
      4          1           0       -0.588969   -1.378001    0.000000
      5          1           0       -0.428070    1.487751    0.000000
 ---------------------------------------------------------------------

 The electronic state is 1-A'.
 Alpha  occ. eigenvalues --  -18.94367 -18.88607 -10.10694  -1.02050  -0.94234
 Alpha  occ. eigenvalues --   -0.57687  -0.42245  -0.37561  -0.33639  -0.28802
 Alpha  occ. eigenvalues --   -0.19451  -0.16482
 Alpha virt. eigenvalues --    0.09344   0.27654   0.34521   0.41345   0.60364

 Mulliken atomic charges:
              1
     1  C    0.141672
     2  O   -0.207436
     3  O   -0.211332
     4  H    0.199961
     5  H    0.077134
 Sum of Mulliken atomic charges =   0.00000

 Dipole moment (field-independent basis, Debye):
    X=              0.3832    Y=             -0.7578    Z=              0.0000  Tot=              0.8492
 Quadrupole moment (field-independent basis, Debye-Ang):
   XX=             60.3838   YY=            -91.7972   ZZ=            -14.9602
   XY=             44.2441   XZ=              0.0000   YZ=              0.0000

  Exact polarizability:  13.306   0.627  12.665   0.000   0.000   2.722
 Approx polarizability:  16.881   1.702  41.776   0.000   0.000   3.178

 Summary of Natural Population Analysis:

                                       Natural Population
                Natural  -----------------------------------------------
    Atom  No    Charge         Core      Valence    Rydberg      Total
 -----------------------------------------------------------------------
      C    1    0.23181      1.99992     3.76827    0.00000     5.76819
      O    2   -0.23113      1.99999     6.23114    0.00000     8.23113
      O    3   -0.24174      2.00000     6.24174    0.00000     8.24174
      H    4    0.21562      0.00000     0.78438    0.00000     0.78438
      H    5    0.02543      0.00000     0.97457    0.00000     0.97457
 =======================================================================
   * Total *    0.00000      5.99991    18.00009    0.00000    24.00000

                     1                      2                      3
                    A'                     A"                     A"
 Frequencies --   552.7234               659.7039               974.8904
 Red. masses --     4.0630                 1.3955                 1.3731
 Frc consts  --     0.7313                 0.3578                 0.7689
 IR Inten    --    28.6267                72.7199                10.1324

                     4                      5                      6
                    A'                     A'                     A'
 Frequencies --  1113.7743              1399.8808              1479.9997
 Red. masses --     3.7424                 1.4302                 1.2591
 Frc consts  --     2.7352                 1.6513                 1.6250
 IR Inten    --    86.9301                 8.5852                 1.0472

                     7                      8                      9
                    A'                     A'                     A'
 Frequencies --  1867.8610              3246.5747              3686.8361
 Red. masses --     6.1564                 1.0939                 1.0660
 Frc consts  --    12.6551                 6.7932                 8.5368
 IR Inten    --    89.1764                10.5230                18.2222

 - Thermochemistry -
 -------------------
 Temperature   298.000 Kelvin.  Pressure   1.00000 Atm.
 Atom     1 has atomic number  6 and mass  12.00000

 Molecular mass:    46.00548 amu.
 Principal axes and moments of inertia in atomic units:
                           1         2         3
     Eigenvalues --    25.54800 162.58158 188.12958
           X            0.95727  -0.28919   0.00000
           Y            0.28919   0.95727   0.00000
           Z            0.00000   0.00000   1.00000
 This molecule is an asymmetric top.
 Rotational symmetry number  1.
 Rotational temperatures (Kelvin)      3.39024     0.53274     0.46039
 Rotational constants (GHZ):          70.64118    11.10053     9.59308
 Zero-point vibrational energy      89613.7 (Joules/Mol)
                                   21.41819 (Kcal/Mol)
 Warning -- explicit consideration of   1 degrees of freedom as
           vibrations may cause significant error
 Vibrational temperatures:    795.24   949.17  1402.65  1602.47  2014.11
          (Kelvin)           2129.39  2687.43  4671.09  5304.53

 Zero-point correction=                           0.034132 (Hartree/Particle)
 Thermal correction to Energy=                    0.037358
 Thermal correction to Enthalpy=                  0.038302
 Thermal correction to Gibbs Free Energy=         0.009915
 Sum of electronic and zero-point Energies=           -187.119677
 Sum of electronic and thermal Energies=              -187.116451
 Sum of electronic and thermal Enthalpies=            -187.115507
 Sum of electronic and thermal Free Energies=         -187.143894

                     E (Thermal)             CV                S
                      KCal/Mol        Cal/Mol-Kelvin    Cal/Mol-Kelvin
 Total                   23.443              8.881             59.775
 Electronic               0.000              0.000              0.000
 Translational            0.888              2.981             37.401
 Rotational               0.888              2.981             21.283
 Vibrational             21.666              2.919              1.090
 Vibration     1          0.908              1.133              0.538

 Normal termination of Gaussian 09 at Sat Sep  4 01:36:40 2021.
