 Gaussian 09, Revision B.01,
 Gaussian 09:  AM64L-G09RevB.01 12-Aug-2010

 ----------------------------------------------------------------------
 #b3lyp/sto-3g pop=(mk,nbo) opt=(calcall,noraman) temperature=298 IOP(2
 /17=4)
 ----------------------------------------------------------------------

 ---------
 ts search
 ---------
 Symbolic Z-matrix:
 Charge =  0 Multiplicity = 1

 SCF Done:  E(RB3LYP) =  -187.095083075     A.U. after   11 cycles
 SCF Done:  E(RB3LYP) =  -187.095082736     A.U. after   13 cycles
 Optimization completed.
    -- Stationary point found.

                         Standard orientation:
 ---------------------------------------------------------------------
 Center     Atomic      Atomic             Coordinates (Angstroms)
 Number     Number       Type             X           Y           Z
 ---------------------------------------------------------------------
      1          6           0        0.000000    0.674414    0.000000
      2          8           0        1.012545   -0.304525    0.000000
      3          8           0       -1.142466   -0.093478    0.000000
      4          1           0        1.884464    0.230655    0.000000
      5          1           0       -0.845092   -1.093116    0.000000
 ---------------------------------------------------------------------

 The electronic state is 1-A'.
 Alpha  occ. eigenvalues --  -18.95173 -18.94478  -9.97239  -1.03584  -0.95021
 Alpha  occ. eigenvalues --   -0.54868  -0.46869  -0.34239  -0.30988  -0.26877
 Alpha  occ. eigenvalues --   -0.21095  -0.13502
 Alpha virt. eigenvalues --    0.09920   0.25886   0.28892   0.42686   0.45489

 Mulliken atomic charges:
              1
     1  C    0.047188
     2  O   -0.243433
     3  O   -0.206148
     4  H    0.216165
     5  H    0.186228
 Sum of Mulliken atomic charges =   0.00000

 Dipole moment (field-independent basis, Debye):
    X=              1.7024    Y=             -1.4253    Z=              0.0000  Tot=              2.2203
 Quadrupole moment (field-independent basis, Debye-Ang):
   XX=             69.4468   YY=            -99.3527   ZZ=            -14.8829
   XY=              8.9147   XZ=              0.0000   YZ=              0.0000

  Exact polarizability:  17.401   2.304  10.426   0.000   0.000   4.114
 Approx polarizability:  19.445   0.127  33.123   0.000   0.000   5.604

 Summary of Natural Population Analysis:

                                       Natural Population
                Natural  -----------------------------------------------
    Atom  No    Charge         Core      Valence    Rydberg      Total
 -----------------------------------------------------------------------
      C    1    0.13423      1.99999     3.86578    0.00000     5.86577
      O    2   -0.30496      2.00000     6.30496    0.00000     8.30496
      O    3   -0.26610      2.00000     6.26611    0.00000     8.26610
      H    4    0.23299      0.00000     0.76701    0.00000     0.76701
      H    5    0.20384      0.00000     0.79616    0.00000     0.79616
 =======================================================================
   * Total *    0.00000      5.99999    18.00001    0.00000    24.00000

                     1                      2                      3
                    A'                     A"                     A"
 Frequencies --   556.3082               661.5105               842.3973
 Red. masses --     3.1960                 1.1190                 1.2574
 Frc consts  --     0.5828                 0.2885                 0.5257
 IR Inten    --    12.4448                83.7384                61.8400

                     4                      5                      6
                    A'                     A'                     A'
 Frequencies --  1140.2708              1207.7256              1376.8747
 Red. masses --     3.6567                 3.3742                 1.4511
 Frc consts  --     2.8013                 2.8997                 1.6208
 IR Inten    --     5.5681               143.8632                53.5649

                     7                      8                      9
                    A'                     A'                     A'
 Frequencies --  1516.2764              3449.9388              3745.5280
 Red. masses --     1.8197                 1.0637                 1.0672
 Frc consts  --     2.4650                 7.4594                 8.8207
 IR Inten    --    40.8610                43.4048                 4.7448

 - Thermochemistry -
 -------------------
 Temperature   298.000 Kelvin.  Pressure   1.00000 Atm.
 Atom     1 has atomic number  6 and mass  12.00000

 Molecular mass:    46.00548 amu.
 Principal axes and moments of inertia in atomic units:
                           1         2         3
     Eigenvalues --    29.36083 148.74387 178.10470
           X            0.99849   0.05499   0.00000
           Y           -0.05499   0.99849   0.00000
           Z            0.00000   0.00000   1.00000
 This molecule is an asymmetric top.
 Rotational symmetry number  1.
 Rotational temperatures (Kelvin)      2.94998     0.58230     0.48631
 Rotational constants (GHZ):          61.46766    12.13321    10.13304
 Zero-point vibrational energy      86710.3 (Joules/Mol)
                                   20.72426 (Kcal/Mol)
 Warning -- explicit consideration of   1 degrees of freedom as
           vibrations may cause significant error
 Vibrational temperatures:    800.40   951.76  1212.02  1640.59  1737.65
          (Kelvin)           1981.01  2181.58  4963.69  5388.97

 Zero-point correction=                           0.033026 (Hartree/Particle)
 Thermal correction to Energy=                    0.036289
 Thermal correction to Enthalpy=                  0.037232
 Thermal correction to Gibbs Free Energy=         0.008803
 Sum of electronic and zero-point Energies=           -187.062057
 Sum of electronic and thermal Energies=              -187.058794
 Sum of electronic and thermal Enthalpies=            -187.057850
 Sum of electronic and thermal Free Energies=         -187.086279

                     E (Thermal)             CV                S
                      KCal/Mol        Cal/Mol-Kelvin    Cal/Mol-Kelvin
 Total                   22.771              9.205             59.864
 Electronic               0.000              0.000              0.000
 Translational            0.888              2.981             37.401
 Rotational               0.888              2.981             21.279
 Vibrational             20.995              3.243              1.184
 Vibration     1          0.912              1.125              0.531

 Normal termination of Gaussian 09 at Sat Sep  4 01:36:40 2021.
