 Gaussian 09, Revision B.01,
 Gaussian 09:  AM64L-G09RevB.01 12-Aug-2010

 ----------------------------------------------------------------------
 #b3lyp/sto-3g opt=(ts,noeigentest,calcfc,noraman) freq=noraman tempera
 ture=298 IOP(2/17=4)
 ----------------------------------------------------------------------

 ---------
 ts search
 ---------
 Symbolic Z-matrix:
 Charge =  0 Multiplicity = 1

 SCF Done:  E(RB3LYP) =  -187.055541188     A.U. after   13 cycles
 SCF Done:  E(RB3LYP) =  -187.055541311     A.U. after    8 cycles
 Optimization completed.
    -- Stationary point found.
 Normal termination of Gaussian 09 at Sat Sep  4 01:33:30 2021.

 ----------------------------------------------------------------------
 #N Geom=AllCheck Guess=TCheck SCRF=Check Test GenChk RB3LYP/STO-3G Fre
 q
 ----------------------------------------------------------------------

 ts search
 ---------
 Redundant internal coordinates taken from checkpoint file:
 ts6_batch5.chk
 Charge =  0 Multiplicity = 1

                         Standard orientation:
 ---------------------------------------------------------------------
 Center     Atomic      Atomic             Coordinates (Angstroms)
 Number     Number       Type             X           Y           Z
 ---------------------------------------------------------------------
      1          6           0        0.306809    0.768067   -0.009361
      2          8           0        1.022286   -0.323341    0.029080
      3          8           0       -1.044212   -0.136779   -0.115927
      4          1           0       -0.079200   -0.917871    0.001439
      5          1           0       -1.586243   -0.009563    0.749508
 ---------------------------------------------------------------------

 SCF Done:  E(RB3LYP) =  -187.055541301     A.U. after    1 cycles

 The electronic state is 1-A.
 Alpha  occ. eigenvalues --  -18.94270 -18.92087  -9.97375  -1.04158  -0.92816
 Alpha  occ. eigenvalues --   -0.49551  -0.48192  -0.33835  -0.31370  -0.26454
 Alpha  occ. eigenvalues --   -0.19745  -0.15347
 Alpha virt. eigenvalues --    0.08662   0.20058   0.25398   0.35826   0.52612

 Mulliken atomic charges:
              1
     1  C    0.052382
     2  O   -0.222483
     3  O   -0.238900
     4  H    0.211122
     5  H    0.197880
 Sum of Mulliken atomic charges =   0.00000

 Dipole moment (field-independent basis, Debye):
    X=             -1.6900    Y=             -1.5436    Z=              1.1746  Tot=              2.5726
 Quadrupole moment (field-independent basis, Debye-Ang):
   XX=            -15.3819   YY=            -16.9441   ZZ=            -14.0238
   XY=              0.1716   XZ=             -2.0537   YZ=             -0.0395

  Exact polarizability:  15.038   0.221   9.479  -2.479  -0.023   6.543
 Approx polarizability:  33.133  -3.693  20.848  -1.542   0.205   9.723

 ******    1 imaginary frequencies (negative Signs) ******

                     1                      2                      3
                     A                      A                      A
 Frequencies -- -1081.6668               586.8700               932.6298
 Red. masses --     1.4680                 1.1519                 4.3166
 Frc consts  --     1.0120                 0.2337                 2.2121
 IR Inten    --    88.4392                74.4148                20.4806

                     4                      5                      6
                     A                      A                      A
 Frequencies --  1065.1311              1089.3963              1516.9820
 Red. masses --     1.6738                 2.7623                 1.4065
 Frc consts  --     1.1188                 1.9315                 1.9070
 IR Inten    --    56.6449               192.8398                52.4429

                     7                      8                      9
                     A                      A                      A
 Frequencies --  1650.5985              2242.6377              3692.5266
 Red. masses --     2.3075                 1.0588                 1.0688
 Frc consts  --     3.7041                 3.1374                 8.5859
 IR Inten    --   127.2507                 9.5346                 9.3411

 - Thermochemistry -
 -------------------
 Temperature   298.000 Kelvin.  Pressure   1.00000 Atm.
 Atom     1 has atomic number  6 and mass  12.00000

 Molecular mass:    46.00548 amu.
 Principal axes and moments of inertia in atomic units:
                           1         2         3
     Eigenvalues --    37.94321 137.67444 170.30176
           X            0.99946   0.00415  -0.03256
           Y           -0.00424   0.99999  -0.00298
           Z            0.03254   0.00311   0.99947
 This molecule is an asymmetric top.
 Rotational symmetry number  1.
 Rotational temperatures (Kelvin)      2.28272     0.62912     0.50859
 Rotational constants (GHZ):          47.56428    13.10876    10.59731
    1 imaginary frequencies ignored.
 Zero-point vibrational energy      76422.1 (Joules/Mol)
                                   18.26531 (Kcal/Mol)
 Warning -- explicit consideration of   1 degrees of freedom as
           vibrations may cause significant error
 Vibrational temperatures:    844.37  1341.84  1532.48  1567.40  2182.60
          (Kelvin)           2374.84  3226.65  5312.72

 Zero-point correction=                           0.029108 (Hartree/Particle)
 Thermal correction to Energy=                    0.032215
 Thermal correction to Enthalpy=                  0.033159
 Thermal correction to Gibbs Free Energy=         0.004873
 Sum of electronic and zero-point Energies=           -187.026434
 Sum of electronic and thermal Energies=              -187.023326
 Sum of electronic and thermal Enthalpies=            -187.022382
 Sum of electronic and thermal Free Energies=         -187.050668

                     E (Thermal)             CV                S
                      KCal/Mol        Cal/Mol-Kelvin    Cal/Mol-Kelvin
 Total                   20.215              8.195             59.562
 Electronic               0.000              0.000              0.000
 Translational            0.888              2.981             37.401
 Rotational               0.888              2.981             21.412
 Vibrational             18.439              2.234              0.749
 Vibration     1          0.944              1.059              0.472

 Optimization completed.
    -- Stationary point found.
 Normal termination of Gaussian 09 at Sat Sep  4 01:33:35 2021.
