 Gaussian 09, Revision B.01,
 Gaussian 09:  AM64L-G09RevB.01 12-Aug-2010

 ----------------------------------------------------------------------
 #b3lyp/sto-3g opt=(ts,noeigentest,calcfc,noraman) freq=noraman tempera
 ture=298 IOP(2/17=4)
 ----------------------------------------------------------------------

 ---------
 ts search
 ---------
 Symbolic Z-matrix:
 Charge =  0 Multiplicity = 1

 SCF Done:  E(RB3LYP) =  -187.025692800     A.U. after   14 cycles
 Optimization completed.
    -- Stationary point found.
 Normal termination of Gaussian 09 at Sat Sep  4 01:33:28 2021.

 ----------------------------------------------------------------------
 #N Geom=AllCheck Guess=TCheck SCRF=Check Test GenChk RB3LYP/STO-3G Fre
 q
 ----------------------------------------------------------------------

 ts search
 ---------
 Redundant internal coordinates taken from checkpoint file:
 ts5_batch8.chk
 Charge =  0 Multiplicity = 1

                         Standard orientation:
 ---------------------------------------------------------------------
 Center     Atomic      Atomic             Coordinates (Angstroms)
 Number     Number       Type             X           Y           Z
 ---------------------------------------------------------------------
      1          6           0        0.315764    0.525974   -0.006766
      2          8           0        1.248847   -0.270994   -0.006521
      3          8           0       -1.235906   -0.129990   -0.107724
      4          1           0       -0.750697    0.987658    0.409874
      5          1           0       -1.247412   -0.935638    0.544681
 ---------------------------------------------------------------------

 SCF Done:  E(RB3LYP) =  -187.025692800     A.U. after    1 cycles

 The electronic state is 1-A.
 Alpha  occ. eigenvalues --  -18.93915 -18.87501 -10.03382  -1.01078  -0.92295
 Alpha  occ. eigenvalues --   -0.54630  -0.38774  -0.34440  -0.32169  -0.27353
 Alpha  occ. eigenvalues --   -0.20173  -0.13044
 Alpha virt. eigenvalues --    0.07054   0.18993   0.26685   0.33210   0.67496

 Mulliken atomic charges:
              1
     1  C    0.057196
     2  O   -0.165524
     3  O   -0.253806
     4  H    0.206675
     5  H    0.155459
 Sum of Mulliken atomic charges =   0.00000

 Dipole moment (field-independent basis, Debye):
    X=             -1.0814    Y=             -0.1167    Z=              1.2336  Tot=              1.6446
 Quadrupole moment (field-independent basis, Debye-Ang):
   XX=            -17.2198   YY=            -14.4528   ZZ=            -14.3121
   XY=              0.6517   XZ=             -1.4936   YZ=             -0.3206

  Exact polarizability:  17.690   1.442  10.373  -1.664  -1.514   5.220
 Approx polarizability:  55.854  -0.925  19.870  -0.332  -2.423   7.317

 ******    1 imaginary frequencies (negative Signs) ******

                     1                      2                      3
                     A                      A                      A
 Frequencies -- -1812.6244               372.2340               489.7859
 Red. masses --     1.2298                 1.7861                 3.2470
 Frc consts  --     2.3807                 0.1458                 0.4589
 IR Inten    --   249.5348                25.0284                18.1142

                     4                      5                      6
                     A                      A                      A
 Frequencies --   788.6786              1063.6623              1332.5684
 Red. masses --     1.8663                 1.9159                 1.0937
 Frc consts  --     0.6840                 1.2771                 1.1442
 IR Inten    --   173.5998                98.4050                25.1000

                     7                      8                      9
                     A                      A                      A
 Frequencies --  1825.8647              2495.1046              3621.3649
 Red. masses --     4.8407                 1.2005                 1.0691
 Frc consts  --     9.5081                 4.4034                 8.2603
 IR Inten    --    89.7025                28.1132                32.1804

 - Thermochemistry -
 -------------------
 Temperature   298.000 Kelvin.  Pressure   1.00000 Atm.
 Atom     1 has atomic number  6 and mass  12.00000

 Molecular mass:    46.00548 amu.
 Principal axes and moments of inertia in atomic units:
                           1         2         3
     Eigenvalues --    25.86134 190.20298 211.68162
           X            0.99977   0.00870  -0.01974
           Y           -0.00907   0.99979  -0.01847
           Z            0.01958   0.01865   0.99963
 This molecule is an asymmetric top.
 Rotational symmetry number  1.
 Rotational temperatures (Kelvin)      3.34916     0.45538     0.40917
 Rotational constants (GHZ):          69.78529     9.48850     8.52573
    1 imaginary frequencies ignored.
 Zero-point vibrational energy      71711.7 (Joules/Mol)
                                   17.13951 (Kcal/Mol)
 Warning -- explicit consideration of   2 degrees of freedom as
           vibrations may cause significant error
 Vibrational temperatures:    535.56   704.69  1134.73  1530.37  1917.27
          (Kelvin)           2627.01  3589.89  5210.33

 Zero-point correction=                           0.027314 (Hartree/Particle)
 Thermal correction to Energy=                    0.030834
 Thermal correction to Enthalpy=                  0.031778
 Thermal correction to Gibbs Free Energy=         0.002791
 Sum of electronic and zero-point Energies=           -186.998379
 Sum of electronic and thermal Energies=              -186.994858
 Sum of electronic and thermal Enthalpies=            -186.993915
 Sum of electronic and thermal Free Energies=         -187.022901

                     E (Thermal)             CV                S
                      KCal/Mol        Cal/Mol-Kelvin    Cal/Mol-Kelvin
 Total                   19.349              9.901             61.039
 Electronic               0.000              0.000              0.000
 Translational            0.888              2.981             37.401
 Rotational               0.888              2.981             21.569
 Vibrational             17.572              3.939              2.069
 Vibration     1          0.744              1.529              1.070
 Vibration     2          0.845              1.272              0.684

 Optimization completed.
    -- Stationary point found.
 Normal termination of Gaussian 09 at Sat Sep  4 01:33:32 2021.
