 Gaussian 09, Revision B.01,
 Gaussian 09:  AM64L-G09RevB.01 12-Aug-2010

 ----------------------------------------------------------------------
 #b3lyp/sto-3g opt=(ts,noeigentest,calcfc,noraman) freq=noraman tempera
 ture=298 IOP(2/17=4)
 ----------------------------------------------------------------------

 ---------
 ts search
 ---------
 Symbolic Z-matrix:
 Charge =  0 Multiplicity = 1

 SCF Done:  E(RB3LYP) =  -187.012914914     A.U. after   14 cycles
 Optimization completed.
    -- Stationary point found.
 Normal termination of Gaussian 09 at Sat Sep  4 01:33:26 2021.

 ----------------------------------------------------------------------
 #N Geom=AllCheck Guess=TCheck SCRF=Check Test GenChk RB3LYP/STO-3G Fre
 q
 ----------------------------------------------------------------------

 ts search
 ---------
 Redundant internal coordinates taken from checkpoint file:
 ts4_batch6.chk
 Charge =  0 Multiplicity = 1

                         Standard orientation:
 ---------------------------------------------------------------------
 Center     Atomic      Atomic             Coordinates (Angstroms)
 Number     Number       Type             X           Y           Z
 ---------------------------------------------------------------------
      1          6           0        0.000000    0.487302    0.000000
      2          8           0       -1.201422   -0.116530    0.000000
      3          8           0        1.090027   -0.420999    0.000000
      4          1           0       -1.016656    1.176721    0.000000
      5          1           0        1.907821    0.199691    0.000000
 ---------------------------------------------------------------------

 SCF Done:  E(RB3LYP) =  -187.012914914     A.U. after    1 cycles

 The electronic state is 1-A'.
 Alpha  occ. eigenvalues --  -18.93951 -18.87009 -10.01038  -1.00098  -0.93822
 Alpha  occ. eigenvalues --   -0.50286  -0.45386  -0.32613  -0.30098  -0.28391
 Alpha  occ. eigenvalues --   -0.18405  -0.10719
 Alpha virt. eigenvalues --    0.09567   0.17481   0.28755   0.44948   0.53076

 Mulliken atomic charges:
              1
     1  C    0.004512
     2  O   -0.211093
     3  O   -0.205359
     4  H    0.207812
     5  H    0.204128
 Sum of Mulliken atomic charges =   0.00000

 Dipole moment (field-independent basis, Debye):
    X=              1.1802    Y=              1.4976    Z=              0.0000  Tot=              1.9068
 Quadrupole moment (field-independent basis, Debye-Ang):
   XX=            -13.0525   YY=            -15.4984   ZZ=            -14.9662
   XY=             -0.3794   XZ=              0.0000   YZ=              0.0000

  Exact polarizability:  21.223  -0.813   8.103   0.000   0.000   3.364
 Approx polarizability:  58.707   4.083  17.293   0.000   0.000   4.154

 ******    1 imaginary frequencies (negative Signs) ******

                     1                      2                      3
                    A'                     A"                     A'
 Frequencies -- -2023.9880               351.8085               564.2803
 Red. masses --     1.1386                 1.2720                 8.0441
 Frc consts  --     2.7481                 0.0928                 1.5091
 IR Inten    --   265.3863                39.2557                 0.4276

                     4                      5                      6
                    A"                     A'                     A'
 Frequencies --   594.8237              1132.8103              1285.4560
 Red. masses --     1.1505                 5.5177                 1.4568
 Frc consts  --     0.2398                 4.1718                 1.4183
 IR Inten    --    51.6015                68.3809               173.3275

                     7                      8                      9
                    A'                     A'                     A'
 Frequencies --  1648.0480              2811.8145              3722.1399
 Red. masses --     3.8248                 1.0771                 1.0676
 Frc consts  --     6.1206                 5.0174                 8.7142
 IR Inten    --    40.6336                27.1533                10.1261

 - Thermochemistry -
 -------------------
 Temperature   298.000 Kelvin.  Pressure   1.00000 Atm.
 Atom     1 has atomic number  6 and mass  12.00000

 Molecular mass:    46.00548 amu.
 Principal axes and moments of inertia in atomic units:
                           1         2         3
     Eigenvalues --    22.92743 170.20208 193.12951
           X            0.98931   0.14580   0.00000
           Y           -0.14580   0.98931   0.00000
           Z            0.00000   0.00000   1.00000
 This molecule is an asymmetric top.
 Rotational symmetry number  1.
 Rotational temperatures (Kelvin)      3.77774     0.50889     0.44848
 Rotational constants (GHZ):          78.71536    10.60352     9.34472
    1 imaginary frequencies ignored.
 Zero-point vibrational energy      72441.0 (Joules/Mol)
                                   17.31380 (Kcal/Mol)
 Warning -- explicit consideration of   3 degrees of freedom as
           vibrations may cause significant error
 Vibrational temperatures:    506.17   811.87   855.82  1629.86  1849.48
          (Kelvin)           2371.17  4045.57  5355.32

 Zero-point correction=                           0.027591 (Hartree/Particle)
 Thermal correction to Energy=                    0.031161
 Thermal correction to Enthalpy=                  0.032104
 Thermal correction to Gibbs Free Energy=         0.003198
 Sum of electronic and zero-point Energies=           -186.985324
 Sum of electronic and thermal Energies=              -186.981754
 Sum of electronic and thermal Enthalpies=            -186.980810
 Sum of electronic and thermal Free Energies=         -187.009717

                     E (Thermal)             CV                S
                      KCal/Mol        Cal/Mol-Kelvin    Cal/Mol-Kelvin
 Total                   19.554             10.135             60.869
 Electronic               0.000              0.000              0.000
 Translational            0.888              2.981             37.401
 Rotational               0.888              2.981             21.248
 Vibrational             17.777              4.173              2.220
 Vibration     1          0.728              1.571              1.157
 Vibration     2          0.920              1.108              0.515
 Vibration     3          0.952              1.042              0.458

 Optimization completed.
    -- Stationary point found.
 Normal termination of Gaussian 09 at Sat Sep  4 01:33:30 2021.
