 Gaussian 09, Revision B.01,
 Gaussian 09:  AM64L-G09RevB.01 12-Aug-2010

 ----------------------------------------------------------------------
 #b3lyp/sto-3g opt=(ts,noeigentest,calcfc,noraman) freq=noraman tempera
 ture=298 IOP(2/17=4)
 ----------------------------------------------------------------------

 ---------
 ts search
 ---------
 Symbolic Z-matrix:
 Charge =  0 Multiplicity = 1

 SCF Done:  E(RB3LYP) =  -186.948734322     A.U. after   13 cycles
 Optimization completed.
    -- Stationary point found.
 Normal termination of Gaussian 09 at Sat Sep  4 01:33:26 2021.

 ----------------------------------------------------------------------
 #N Geom=AllCheck Guess=TCheck SCRF=Check Test GenChk RB3LYP/STO-3G Fre
 q
 ----------------------------------------------------------------------

 ts search
 ---------
 Redundant internal coordinates taken from checkpoint file:
 ts2_batch3.chk
 Charge =  0 Multiplicity = 1

                         Standard orientation:
 ---------------------------------------------------------------------
 Center     Atomic      Atomic             Coordinates (Angstroms)
 Number     Number       Type             X           Y           Z
 ---------------------------------------------------------------------
      1          6           0       -0.000102    0.229898    0.000000
      2          8           0       -0.000102   -0.248567    1.236474
      3          8           0       -0.000102   -0.248567   -1.236474
      4          1           0        0.639912    1.298071    0.000000
      5          1           0       -0.637673    1.299615    0.000000
 ---------------------------------------------------------------------

 SCF Done:  E(RB3LYP) =  -186.948734322     A.U. after    1 cycles

 The electronic state is 1-A'.
 Alpha  occ. eigenvalues --  -18.85522 -18.85518 -10.12524  -0.97538  -0.90011
 Alpha  occ. eigenvalues --   -0.61201  -0.38727  -0.37392  -0.31863  -0.15874
 Alpha  occ. eigenvalues --   -0.14594  -0.14514
 Alpha virt. eigenvalues --   -0.04375   0.25667   0.27617   0.37493   0.57664

 Mulliken atomic charges:
              1
     1  C    0.053105
     2  O   -0.188570
     3  O   -0.188570
     4  H    0.162108
     5  H    0.161927
 Sum of Mulliken atomic charges =   0.00000

 Dipole moment (field-independent basis, Debye):
    X=              0.0026    Y=              2.7248    Z=              0.0000  Tot=              2.7248
 Quadrupole moment (field-independent basis, Debye-Ang):
   XX=            -14.0651   YY=            -12.8756   ZZ=            -19.6646
   XY=              0.0021   XZ=              0.0000   YZ=              0.0000

  Exact polarizability:   7.371   0.002  11.465   0.000   0.000  18.957
 Approx polarizability:  10.996   0.005  21.975   0.000   0.000 151.677

 ******    1 imaginary frequencies (negative Signs) ******

                     1                      2                      3
                    A'                     A'                     A"
 Frequencies -- -1664.5049               560.1640               595.1025
 Red. masses --     1.3061                 2.5589                 1.0237
 Frc consts  --     2.1321                 0.4731                 0.2136
 IR Inten    --    32.3396                21.1845                 0.0043

                     4                      5                      6
                    A'                     A"                     A'
 Frequencies --   610.6538               803.2539              1204.7262
 Red. masses --     7.6576                 1.2607                 4.3014
 Frc consts  --     1.6824                 0.4793                 3.6782
 IR Inten    --    32.6688               108.1440                13.4643

                     7                      8                      9
                    A"                     A'                     A'
 Frequencies --  1526.1751              1849.9660              2470.5384
 Red. masses --     5.7793                 1.0675                 1.0466
 Frc consts  --     7.9311                 2.1525                 3.7637
 IR Inten    --     2.9465                 2.3516                21.1317

 - Thermochemistry -
 -------------------
 Temperature   298.000 Kelvin.  Pressure   1.00000 Atm.
 Atom     1 has atomic number  6 and mass  12.00000

 Molecular mass:    46.00548 amu.
 Principal axes and moments of inertia in atomic units:
                           1         2         3
     Eigenvalues --    23.88874 177.59164 195.60598
           X            0.00000   0.00046   1.00000
           Y            0.00000   1.00000  -0.00046
           Z            1.00000   0.00000   0.00000
 This molecule is an asymmetric top.
 Rotational symmetry number  1.
 Rotational temperatures (Kelvin)      3.62572     0.48771     0.44280
 Rotational constants (GHZ):          75.54777    10.16231     9.22641
    1 imaginary frequencies ignored.
 Zero-point vibrational energy      57543.8 (Joules/Mol)
                                   13.75331 (Kcal/Mol)
 Warning -- explicit consideration of   3 degrees of freedom as
           vibrations may cause significant error
 Vibrational temperatures:    805.95   856.22   878.59  1155.70  1733.33
          (Kelvin)           2195.82  2661.69  3554.55

 Zero-point correction=                           0.021917 (Hartree/Particle)
 Thermal correction to Energy=                    0.025347
 Thermal correction to Enthalpy=                  0.026291
 Thermal correction to Gibbs Free Energy=        -0.002400
 Sum of electronic and zero-point Energies=           -186.926817
 Sum of electronic and thermal Energies=              -186.923387
 Sum of electronic and thermal Enthalpies=            -186.922444
 Sum of electronic and thermal Free Energies=         -186.951134

                     E (Thermal)             CV                S
                      KCal/Mol        Cal/Mol-Kelvin    Cal/Mol-Kelvin
 Total                   15.906             10.066             60.414
 Electronic               0.000              0.000              0.000
 Translational            0.888              2.981             37.401
 Rotational               0.888              2.981             21.343
 Vibrational             14.129              4.104              1.670
 Vibration     1          0.916              1.117              0.523
 Vibration     2          0.953              1.042              0.458
 Vibration     3          0.970              1.009              0.431

 Optimization completed.
    -- Stationary point found.
 Normal termination of Gaussian 09 at Sat Sep  4 01:33:29 2021.
