 Gaussian 16, Revision C.01,
 Gaussian 16:  ES64L-G16RevC.01  3-Jul-2019

 -----------------------------------------------------------------
 # opt freq=noraman wb97xd scrf=(smd,solvent=acetonitrile) def2svp
 -----------------------------------------------------------------

 -------------------
 Title Card Required
 -------------------
 Symbolic Z-matrix:
 Charge =  1 Multiplicity = 1

 SCF Done:  E(RwB97XD) =  -292.557208490     A.U. after   11 cycles
 SCF Done:  E(RwB97XD) =  -292.590705566     A.U. after   11 cycles
 SCF Done:  E(RwB97XD) =  -292.601124459     A.U. after   10 cycles
 SCF Done:  E(RwB97XD) =  -292.603651379     A.U. after   10 cycles
 SCF Done:  E(RwB97XD) =  -292.604901059     A.U. after   10 cycles
 SCF Done:  E(RwB97XD) =  -292.605317074     A.U. after    9 cycles
 SCF Done:  E(RwB97XD) =  -292.605419697     A.U. after    9 cycles
 SCF Done:  E(RwB97XD) =  -292.605428015     A.U. after    8 cycles
 SCF Done:  E(RwB97XD) =  -292.605442129     A.U. after    8 cycles
 SCF Done:  E(RwB97XD) =  -292.605443760     A.U. after    7 cycles
 SCF Done:  E(RwB97XD) =  -292.605445979     A.U. after    7 cycles
 Optimization completed.
    -- Stationary point found.
 Normal termination of Gaussian 16 at Fri May 19 09:48:37 2023.

 --------------------------------------------------------------------
 #N Geom=AllCheck Guess=TCheck SCRF=Check GenChk RwB97XD/def2SVP Freq
 --------------------------------------------------------------------

 Structure from the checkpoint file:  "/home/heidi/Gau-290849.chk"
 -------------------
 Title Card Required
 -------------------
 Charge =  1 Multiplicity = 1

                         Standard orientation:
 ---------------------------------------------------------------------
 Center     Atomic      Atomic             Coordinates (Angstroms)
 Number     Number       Type             X           Y           Z
 ---------------------------------------------------------------------
      1          7           0        0.047101   -0.211997   -0.653004
      2          6           0       -1.411086   -0.597860   -0.684276
      3          1           0       -1.905151    0.150687   -1.316734
      4          1           0       -1.446302   -1.560555   -1.211840
      5          6           0        0.829063   -0.983204    0.366892
      6          1           0        0.481377   -0.674707    1.359935
      7          1           0        0.546497   -2.034420    0.220079
      8          6           0       -2.096939   -0.721565    0.661268
      9          1           0       -2.047427    0.199430    1.255424
     10          1           0       -3.157466   -0.938066    0.468211
     11          1           0       -1.695352   -1.551735    1.257963
     12          6           0        2.325162   -0.802554    0.224402
     13          1           0        2.655171    0.206414    0.508722
     14          1           0        2.823688   -1.517337    0.893834
     15          1           0        2.659807   -1.011702   -0.803460
     16          6           0        0.306316    1.270072   -0.663644
     17          1           0        1.368052    1.386590   -0.914733
     18          1           0       -0.274322    1.662797   -1.508673
     19          6           0       -0.026468    2.006499    0.615585
     20          1           0        0.501193    1.595576    1.488065
     21          1           0        0.300843    3.048696    0.492513
     22          1           0       -1.104621    2.020515    0.822092
     23          1           0        0.408008   -0.526530   -1.561731
 ---------------------------------------------------------------------

 SCF Done:  E(RwB97XD) =  -292.605445979     A.U. after    1 cycles

 The electronic state is 1-A.
 Alpha  occ. eigenvalues --  -14.56164 -10.35087 -10.35018 -10.34974 -10.29947
 Alpha  occ. eigenvalues --  -10.29838 -10.29777  -1.10364  -0.88123  -0.87811
 Alpha  occ. eigenvalues --   -0.83795  -0.75344  -0.73747  -0.68639  -0.64612
 Alpha  occ. eigenvalues --   -0.60323  -0.58571  -0.55058  -0.52386  -0.51692
 Alpha  occ. eigenvalues --   -0.49043  -0.48648  -0.47789  -0.47253  -0.45531
 Alpha  occ. eigenvalues --   -0.44976  -0.44291  -0.43699  -0.42257
 Alpha virt. eigenvalues --    0.11651   0.14463   0.15592   0.16301   0.17657
 Alpha virt. eigenvalues --    0.18662   0.19563   0.20458   0.20755   0.21032
 Alpha virt. eigenvalues --    0.22196   0.22751   0.23353   0.24586   0.25043

 Mulliken charges:
               1
     1  N   -0.242643
     2  C    0.025467
     3  H    0.089954
     4  H    0.095444
     5  C   -0.005096
     6  H    0.105263
     7  H    0.096312
     8  C   -0.089968
     9  H    0.063445
    10  H    0.076444
    11  H    0.071019
    12  C   -0.083759
    13  H    0.074020
    14  H    0.076381
    15  H    0.069725
    16  C    0.008593
    17  H    0.095808
    18  H    0.092258
    19  C   -0.090931
    20  H    0.070630
    21  H    0.075732
    22  H    0.076846
    23  H    0.249055
 Sum of Mulliken charges =   1.00000

 Dipole moment (field-independent basis, Debye):
    X=              0.2031    Y=             -0.8622    Z=             -2.5619  Tot=              2.7107
 Quadrupole moment (field-independent basis, Debye-Ang):
   XX=            -37.3715   YY=            -37.6970   ZZ=            -38.6959
   XY=              0.0582   XZ=              0.5262   YZ=              0.2183

  Exact polarizability:      96.416       0.323      94.216       0.403      -0.694      90.347
 Approx polarizability:      73.527       0.090      73.220       0.250      -0.383      71.644

                      1                      2                      3
                      A                      A                      A
 Frequencies --     59.2773               108.1600               128.8842
 Red. masses --      2.0784                 1.8289                 1.7273
 Frc consts  --      0.0043                 0.0126                 0.0169
 IR Inten    --      0.4347                 0.8888                 0.6995

                      4                      5                      6
                      A                      A                      A
 Frequencies --    232.7183               252.9896               268.8535
 Red. masses --      1.2889                 1.4315                 1.6343
 Frc consts  --      0.0411                 0.0540                 0.0696
 IR Inten    --      0.5725                 0.6671                 0.7220

                      7                      8                      9
                      A                      A                      A
 Frequencies --    293.6105               323.3280               371.2376
 Red. masses --      1.3455                 2.1243                 2.2933
 Frc consts  --      0.0683                 0.1308                 0.1862
 IR Inten    --      0.3372                 0.0499                 0.7609

                     10                     11                     12
                      A                      A                      A
 Frequencies --    414.9744               482.2978               620.6078
 Red. masses --      2.0090                 2.3952                 2.3122
 Frc consts  --      0.2038                 0.3283                 0.5247
 IR Inten    --      0.8497                 0.3874                 3.4629

                     13                     14                     15
                      A                      A                      A
 Frequencies --    740.6328               801.5503               816.2429
 Red. masses --      2.4625                 1.1200                 1.1941
 Frc consts  --      0.7958                 0.4240                 0.4688
 IR Inten    --      8.0262                 4.8996                21.2832

                     16                     17                     18
                      A                      A                      A
 Frequencies --    840.9247               914.3594               925.3270
 Red. masses --      1.2334                 1.9275                 1.7771
 Frc consts  --      0.5139                 0.9495                 0.8965
 IR Inten    --     15.3739                 1.4521                 2.5810

                     19                     20                     21
                      A                      A                      A
 Frequencies --   1039.6145              1076.2330              1077.9010
 Red. masses --      1.6161                 2.2670                 1.6746
 Frc consts  --      1.0291                 1.5471                 1.1463
 IR Inten    --      4.3302                24.5833                30.5702

                     22                     23                     24
                      A                      A                      A
 Frequencies --   1081.5957              1100.5151              1116.3962
 Red. masses --      1.9674                 2.2803                 1.4839
 Frc consts  --      1.3560                 1.6272                 1.0897
 IR Inten    --     10.0562                19.4635                 1.5897

                     25                     26                     27
                      A                      A                      A
 Frequencies --   1175.9095              1206.1624              1213.1323
 Red. masses --      2.0397                 1.9105                 1.9092
 Frc consts  --      1.6617                 1.6376                 1.6554
 IR Inten    --     24.6525                 8.9740                12.6183

                     28                     29                     30
                      A                      A                      A
 Frequencies --   1306.8280              1332.4798              1346.1772
 Red. masses --      1.1434                 1.1268                 1.1263
 Frc consts  --      1.1505                 1.1787                 1.2026
 IR Inten    --      8.4997                 2.0479                56.8876

                     31                     32                     33
                      A                      A                      A
 Frequencies --   1367.0307              1386.4686              1401.2731
 Red. masses --      1.1442                 1.2270                 1.2376
 Frc consts  --      1.2598                 1.3897                 1.4318
 IR Inten    --      9.7377                 1.1825                15.7954

                     34                     35                     36
                      A                      A                      A
 Frequencies --   1404.6886              1422.2845              1430.4705
 Red. masses --      1.2220                 1.2919                 1.2602
 Frc consts  --      1.4206                 1.5398                 1.5193
 IR Inten    --     10.1245                30.4962                59.2621

                     37                     38                     39
                      A                      A                      A
 Frequencies --   1448.8796              1453.5908              1457.0508
 Red. masses --      1.1525                 1.0844                 1.0705
 Frc consts  --      1.4255                 1.3500                 1.3390
 IR Inten    --      4.4871                 4.8521                 9.7888

                     40                     41                     42
                      A                      A                      A
 Frequencies --   1460.5750              1463.6170              1466.1177
 Red. masses --      1.0765                 1.1468                 1.0830
 Frc consts  --      1.3530                 1.4474                 1.3715
 IR Inten    --     12.9397                 0.3030                10.9992

                     43                     44                     45
                      A                      A                      A
 Frequencies --   1476.2823              1478.9155              1487.1944
 Red. masses --      1.2200                 1.1565                 1.1113
 Frc consts  --      1.5666                 1.4903                 1.4482
 IR Inten    --     16.5659                13.6040                16.3263

                     46                     47                     48
                      A                      A                      A
 Frequencies --   1494.6794              1503.3472              3063.8877
 Red. masses --      1.0975                 1.1350                 1.0385
 Frc consts  --      1.4445                 1.5113                 5.7438
 IR Inten    --     25.2062                25.1148                10.8492

                     49                     50                     51
                      A                      A                      A
 Frequencies --   3075.9601              3081.2036              3111.8991
 Red. masses --      1.0382                 1.0391                 1.0636
 Frc consts  --      5.7875                 5.8122                 6.0685
 IR Inten    --      4.7806                13.7542                10.9372

                     52                     53                     54
                      A                      A                      A
 Frequencies --   3118.1280              3120.6287              3162.8452
 Red. masses --      1.0641                 1.0649                 1.1059
 Frc consts  --      6.0958                 6.1098                 6.5180
 IR Inten    --     14.2291                 6.5777                 9.7702

                     55                     56                     57
                      A                      A                      A
 Frequencies --   3171.2164              3171.4151              3174.2374
 Red. masses --      1.1041                 1.1053                 1.1047
 Frc consts  --      6.5419                 6.5498                 6.5580
 IR Inten    --      5.6326                 5.2327                14.4021

                     58                     59                     60
                      A                      A                      A
 Frequencies --   3177.8176              3182.2900              3192.2211
 Red. masses --      1.1073                 1.1072                 1.1073
 Frc consts  --      6.5881                 6.6062                 6.6481
 IR Inten    --      4.6775                 4.9428                11.5191

                     61                     62                     63
                      A                      A                      A
 Frequencies --   3195.4303              3202.5354              3474.0920
 Red. masses --      1.1080                 1.1046                 1.0778
 Frc consts  --      6.6660                 6.6750                 7.6646
 IR Inten    --     11.3761                12.5743               138.5326

 - Thermochemistry -
 -------------------
 Temperature   298.150 Kelvin.  Pressure   1.00000 Atm.
 Atom     1 has atomic number  7 and mass  14.00307

 Molecular mass:   102.12827 amu.
 Principal axes and moments of inertia in atomic units:
                           1         2         3
     Eigenvalues --   646.17493 886.606921190.84581
           X            0.99998   0.00008  -0.00582
           Y           -0.00006   0.99999   0.00392
           Z            0.00582  -0.00392   0.99998
 This molecule is an asymmetric top.
 Rotational symmetry number  1.
 Warning -- assumption of classical behavior for rotation
           may cause significant error
 Rotational temperatures (Kelvin)      0.13404     0.09769     0.07273
 Rotational constants (GHZ):           2.79296     2.03556     1.51551
 Zero-point vibrational energy     585854.3 (Joules/Mol)
                                  140.02254 (Kcal/Mol)
 Warning -- explicit consideration of  12 degrees of freedom as
           vibrations may cause significant error
 Vibrational temperatures:     85.29   155.62   185.44   334.83   364.00
          (Kelvin)            386.82   422.44   465.20   534.13   597.06
                              693.92   892.92  1065.61  1153.25  1174.39
                             1209.90  1315.56  1331.34  1495.77  1548.46
                             1550.86  1556.18  1583.40  1606.25  1691.87
                             1735.40  1745.43  1880.23  1917.14  1936.85
                             1966.85  1994.82  2016.12  2021.03  2046.35
                             2058.13  2084.61  2091.39  2096.37  2101.44
                             2105.82  2109.42  2124.04  2127.83  2139.74
                             2150.51  2162.98  4408.25  4425.62  4433.16
                             4477.33  4486.29  4489.89  4550.63  4562.67
                             4562.96  4567.02  4572.17  4578.61  4592.89
                             4597.51  4607.73  4998.44

 Zero-point correction=                           0.223140 (Hartree/Particle)
 Thermal correction to Energy=                    0.232246
 Thermal correction to Enthalpy=                  0.233190
 Thermal correction to Gibbs Free Energy=         0.189710
 Sum of electronic and zero-point Energies=           -292.382306
 Sum of electronic and thermal Energies=              -292.373200
 Sum of electronic and thermal Enthalpies=            -292.372256
 Sum of electronic and thermal Free Energies=         -292.415736

                     E (Thermal)             CV                S
                      KCal/Mol        Cal/Mol-Kelvin    Cal/Mol-Kelvin
 Total                  145.737             33.547             91.513
 Electronic               0.000              0.000              0.000
 Translational            0.889              2.981             39.781
 Rotational               0.889              2.981             28.014
 Vibrational            143.959             27.585             23.719
 Vibration     1          0.597              1.974              4.481
 Vibration     2          0.606              1.943              3.302
 Vibration     3          0.611              1.924              2.963
 Vibration     4          0.653              1.791              1.858
 Vibration     5          0.664              1.758              1.710
 Vibration     6          0.673              1.730              1.604
 Vibration     7          0.688              1.686              1.453
 Vibration     8          0.708              1.629              1.293
 Vibration     9          0.743              1.531              1.075
 Vibration    10          0.778              1.438              0.909
 Vibration    11          0.839              1.289              0.704
 Vibration    12          0.981              0.988              0.416

                           ! Non-Optimized Parameters !
 Normal termination of Gaussian 16 at Fri May 19 09:49:52 2023.
